 Gaussian 09, Revision A.01,
 Gaussian 09:  EM64L-G09RevA.01  8-May-2009

 --------------------------------------------------------------------
 #p opt=(verytight) freq rb3lyp/6-31++g(d,p) scrf=(pcm,solvent=water)
 --------------------------------------------------------------------

 ---------------------------------
 water: optimization + frequencies
 ---------------------------------
 Symbolic Z-matrix:
 Charge =  0 Multiplicity = 1

 SCF Done:  E(RB3LYP) =  -76.4421372916     A.U. after    8 cycles
 SCF Done:  E(RB3LYP) =  -76.4423442602     A.U. after    7 cycles
 SCF Done:  E(RB3LYP) =  -76.4423476655     A.U. after    6 cycles
 SCF Done:  E(RB3LYP) =  -76.4423477046     A.U. after    5 cycles
 SCF Done:  E(RB3LYP) =  -76.4423477050     A.U. after   11 cycles
 Optimization completed.
    -- Stationary point found.
 Normal termination of Gaussian 09 at Fri Apr 29 16:23:26 2016.

 ----------------------------------------------------------------------
 #P Geom=AllCheck Guess=TCheck SCRF=Check GenChk RB3LYP/6-31++G(d,p) Fr
 eq
 ----------------------------------------------------------------------

 water: optimization + frequencies
 ---------------------------------
 Redundant internal coordinates taken from checkpoint file:
 water_optimization+frequencies.chk
 Charge =  0 Multiplicity = 1

                         Standard orientation:
 ---------------------------------------------------------------------
 Center     Atomic      Atomic             Coordinates (Angstroms)
 Number     Number       Type             X           Y           Z
 ---------------------------------------------------------------------
      1          8           0        0.000000    0.000000    0.117801
      2          1           0        0.000000    0.766838   -0.471203
      3          1           0        0.000000   -0.766838   -0.471203
 ---------------------------------------------------------------------

 SCF Done:  E(RB3LYP) =  -76.4423477046     A.U. after    1 cycles

 The electronic state is 1-A1.
 Alpha  occ. eigenvalues --  -19.17190  -1.02228  -0.53925  -0.40149  -0.32606
 Alpha virt. eigenvalues --   -0.01504   0.03900   0.13736   0.14631   0.16885
 Alpha virt. eigenvalues --    0.20493   0.21772   0.27310   0.91484   0.99931
 Alpha virt. eigenvalues --    1.10647   1.12703   1.16076   1.36141   1.50455

 Mulliken atomic charges:
              1
     1  O   -0.750350
     2  H    0.375175
     3  H    0.375175
 Sum of Mulliken atomic charges =   0.00000

 Dipole moment (field-independent basis, Debye):
    X=              0.0000    Y=              0.0000    Z=             -2.4577  Tot=              2.4577
 Quadrupole moment (field-independent basis, Debye-Ang):
   XX=             -7.9450   YY=             -4.3159   ZZ=             -6.5140
   XY=              0.0000   XZ=              0.0000   YZ=              0.0000

  Exact polarizability:   7.565   0.000   8.807   0.000   0.000   7.386
 Approx polarizability:   6.941   0.000   9.623   0.000   0.000   7.640

                     1                      2                      3
                    A1                     A1                     B2
 Frequencies --  1605.3938              3795.5962              3899.1067
 Red. masses --     1.0827                 1.0452                 1.0823
 Frc consts  --     1.6440                 8.8716                 9.6945
 IR Inten    --   116.4181                21.6647               102.4246

 - Thermochemistry -
 -------------------
 Temperature   298.150 Kelvin.  Pressure   1.00000 Atm.
 Atom     1 has atomic number  8 and mass  15.99491

 Molecular mass:    18.01056 amu.
 Principal axes and moments of inertia in atomic units:
                           1         2         3
     Eigenvalues --     2.21771   4.23273   6.45043
           X            0.00000   0.00000   1.00000
           Y            1.00000   0.00000   0.00000
           Z            0.00000   1.00000   0.00000
 This molecule is an asymmetric top.
 Rotational symmetry number  2.
 Rotational temperatures (Kelvin)     39.05557    20.46290    13.42760
 Rotational constants (GHZ):         813.78694   426.37807   279.78608
 Zero-point vibrational energy      55626.9 (Joules/Mol)
                                   13.29516 (Kcal/Mol)
 Vibrational temperatures:   2309.80  5461.01  5609.94
          (Kelvin)

 Zero-point correction=                           0.021187 (Hartree/Particle)
 Thermal correction to Energy=                    0.024023
 Thermal correction to Enthalpy=                  0.024967
 Thermal correction to Gibbs Free Energy=         0.003530
 Sum of electronic and zero-point Energies=            -76.421161
 Sum of electronic and thermal Energies=               -76.418325
 Sum of electronic and thermal Enthalpies=             -76.417381
 Sum of electronic and thermal Free Energies=          -76.438818

                     E (Thermal)             CV                S
                      KCal/Mol        Cal/Mol-Kelvin    Cal/Mol-Kelvin
 Total                   15.075              6.013             45.119
 Electronic               0.000              0.000              0.000
 Translational            0.889              2.981             34.608
 Rotational               0.889              2.981             10.503
 Vibrational             13.297              0.052              0.008

 Optimization completed.
    -- Stationary point found.
 Normal termination of Gaussian 09 at Fri Apr 29 16:23:35 2016.
